      -----------------------------------------------------------      
     |                   =====================                   |     
     |                           x T B                           |     
     |                   =====================                   |     
     |                         S. Grimme                         |     
     |          Mulliken Center for Theoretical Chemistry        |     
     |                    University of Bonn                     |     
      -----------------------------------------------------------      

   * xtb version 6.6.1 (8d0f1dd) compiled by 'runner@Mac-1690902400584.local' on 2023-08-01

   xtb is free software: you can redistribute it and/or modify it under
   the terms of the GNU Lesser General Public License as published by
   the Free Software Foundation, either version 3 of the License, or
   (at your option) any later version.
   
   xtb is distributed in the hope that it will be useful,
   but WITHOUT ANY WARRANTY; without even the implied warranty of
   MERCHANTABILITY or FITNESS FOR A PARTICULAR PURPOSE.  See the
   GNU Lesser General Public License for more details.
   
   Cite this work as:
   * C. Bannwarth, E. Caldeweyher, S. Ehlert, A. Hansen, P. Pracht,
     J. Seibert, S. Spicher, S. Grimme, WIREs Comput. Mol. Sci., 2020, 11,
     e01493. DOI: 10.1002/wcms.1493
   
   for GFN2-xTB:
   * C. Bannwarth, S. Ehlert and S. Grimme., J. Chem. Theory Comput., 2019,
     15, 1652-1671. DOI: 10.1021/acs.jctc.8b01176
   for GFN1-xTB:
   * S. Grimme, C. Bannwarth, P. Shushkov, J. Chem. Theory Comput., 2017,
     13, 1989-2009. DOI: 10.1021/acs.jctc.7b00118
   for GFN0-xTB:
   * P. Pracht, E. Caldeweyher, S. Ehlert, S. Grimme, ChemRxiv, 2019, preprint.
     DOI: 10.26434/chemrxiv.8326202.v1
   for GFN-FF:
   * S. Spicher and S. Grimme, Angew. Chem. Int. Ed., 2020, 59, 15665-15673.
     DOI: 10.1002/anie.202004239
   
   for ALPB and GBSA implicit solvation:
   * S. Ehlert, M. Stahn, S. Spicher, S. Grimme, J. Chem. Theory Comput.,
     2021, 17, 4250-4261. DOI: 10.1021/acs.jctc.1c00471
   
   for DFT-D4:
   * E. Caldeweyher, C. Bannwarth and S. Grimme, J. Chem. Phys., 2017,
     147, 034112. DOI: 10.1063/1.4993215
   * E. Caldeweyher, S. Ehlert, A. Hansen, H. Neugebauer, S. Spicher,
     C. Bannwarth and S. Grimme, J. Chem. Phys., 2019, 150, 154122.
     DOI: 10.1063/1.5090222
   * E. Caldeweyher, J.-M. Mewes, S. Ehlert and S. Grimme, Phys. Chem. Chem. Phys.
     2020, 22, 8499-8512. DOI: 10.1039/D0CP00502A
   
   for sTDA-xTB:
   * S. Grimme and C. Bannwarth, J. Chem. Phys., 2016, 145, 054103.
     DOI: 10.1063/1.4959605
   
   in the mass-spec context:
   * V. Asgeirsson, C. Bauer and S. Grimme, Chem. Sci., 2017, 8, 4879.
     DOI: 10.1039/c7sc00601b
   * J. Koopman and S. Grimme, ACS Omega 2019, 4, 12, 15120-15133.
     DOI: 10.1021/acsomega.9b02011
   
   for metadynamics refer to:
   * S. Grimme, J. Chem. Theory Comput., 2019, 155, 2847-2862
     DOI: 10.1021/acs.jctc.9b00143
   
   for SPH calculations refer to:
   * S. Spicher and S. Grimme, J. Chem. Theory Comput., 2021, 17, 1701-1714
     DOI: 10.1021/acs.jctc.0c01306
   
   with help from (in alphabetical order)
   P. Atkinson, C. Bannwarth, F. Bohle, G. Brandenburg, E. Caldeweyher
   M. Checinski, S. Dohm, S. Ehlert, S. Ehrlich, I. Gerasimov, C. Hölzer
   A. Katbashev, J. Koopman, C. Lavigne, S. Lehtola, F. März, M. Müller,
   F. Musil, H. Neugebauer, J. Pisarek, C. Plett, P. Pracht, F. Pultar,
   J. Seibert, P. Shushkov, S. Spicher, M. Stahn, M. Steiner, T. Strunk,
   J. Stückrath, T. Rose, and J. Unsleber
   
 * started run on 2023/08/31 at 18:00:48.746     

           -------------------------------------------------
          |                Calculation Setup                |
           -------------------------------------------------

          program call               : xtb --norestart --verbose --parallel 1 --opt --gfn2 -- mol.xyz
          coordinate file            : mol.xyz
          xtbhome directory          : /Users/dbo
          path for xtb               : /Users/dbo
          xcontrol input file        : mol.xyz
          omp threads                :                     1

$$$$$$$$$$$$$$$$$$$$$$$$$$$$$$$$$$$$$$$$$$$$$$$$$$$$$$$$$$$$$$$$$$$$$$$$
 CONSTRAINTS & SCANS: DEBUG SECTION
$$$$$$$$$$$$$$$$$$$$$$$$$$$$$$$$$$$$$$$$$$$$$$$$$$$$$$$$$$$$$$$$$$$$$$$$
   ID    Z sym.   atoms
    1    6 C      1-4
    2    1 H      5-14
$$$$$$$$$$$$$$$$$$$$$$$$$$$$$$$$$$$$$$$$$$$$$$$$$$$$$$$$$$$$$$$$$$$$$$$$

           -------------------------------------------------
          |                 G F N 2 - x T B                 |
           -------------------------------------------------

        Reference                      10.1021/acs.jctc.8b01176
      * Hamiltonian:
        H0-scaling (s, p, d)           1.850000    2.230000    2.230000
        zeta-weighting                 0.500000
      * Dispersion:
        s8                             2.700000
        a1                             0.520000
        a2                             5.000000
        s9                             5.000000
      * Repulsion:
        kExp                           1.500000    1.000000
        rExp                           1.000000
      * Coulomb:
        alpha                          2.000000
        third order                    shell-resolved
        anisotropic                    true
        a3                             3.000000
        a5                             4.000000
        cn-shift                       1.200000
        cn-exp                         4.000000
        max-rad                        5.000000


          ...................................................
          :                      SETUP                      :
          :.................................................:
          :  # basis functions                  26          :
          :  # atomic orbitals                  26          :
          :  # shells                           18          :
          :  # electrons                        26          :
          :  max. iterations                   250          :
          :  Hamiltonian                  GFN2-xTB          :
          :  restarted?                      false          :
          :  GBSA solvation                  false          :
          :  PC potential                    false          :
          :  electronic temp.          300.0000000     K    :
          :  accuracy                    1.0000000          :
          :  -> integral cutoff          0.2500000E+02      :
          :  -> integral neglect         0.1000000E-07      :
          :  -> SCF convergence          0.1000000E-05 Eh   :
          :  -> wf. convergence          0.1000000E-03 e    :
          :  Broyden damping             0.4000000          :
          ...................................................

 iter      E             dE          RMSdq      gap      omega  full diag
   1    -13.8054777 -0.138055E+02  0.290E+00   14.12       0.0  T
   2    -13.8501196 -0.446419E-01  0.163E+00   14.30       1.0  T
   3    -13.8505329 -0.413301E-03  0.830E-01   14.22       1.0  T
   4    -13.8506562 -0.123255E-03  0.954E-02   14.12       1.0  T
   5    -13.8506603 -0.409819E-05  0.517E-02   14.12       1.0  T
   6    -13.8506607 -0.480161E-06  0.179E-03   14.12      15.0  T
   7    -13.8506607 -0.420880E-08  0.837E-04   14.12      31.9  T
   8    -13.8506607 -0.567786E-09  0.190E-04   14.12     140.8  T

   *** convergence criteria satisfied after 8 iterations ***

         #    Occupation            Energy/Eh            Energy/eV
      -------------------------------------------------------------
         1        2.0000           -0.6207471             -16.8914
       ...           ...                  ...                  ...
         7        2.0000           -0.4847077             -13.1896
         8        2.0000           -0.4788957             -13.0314
         9        2.0000           -0.4531478             -12.3308
        10        2.0000           -0.4404153             -11.9843
        11        2.0000           -0.4360201             -11.8647
        12        2.0000           -0.4213290             -11.4649
        13        2.0000           -0.4180238             -11.3750 (HOMO)
        14                          0.1009233               2.7463 (LUMO)
        15                          0.1055129               2.8712
        16                          0.1112858               3.0282
        17                          0.1273592               3.4656
        18                          0.1357642               3.6943
       ...                                ...                  ...
        26                          0.3105327               8.4500
      -------------------------------------------------------------
                  HL-Gap            0.5189471 Eh           14.1213 eV
             Fermi-level           -0.1585503 Eh           -4.3144 eV

 SCC (total)                   0 d,  0 h,  0 min,  0.005 sec
 SCC setup                      ...        0 min,  0.000 sec (  2.421%)
 Dispersion                     ...        0 min,  0.000 sec (  1.443%)
 classical contributions        ...        0 min,  0.000 sec (  0.563%)
 integral evaluation            ...        0 min,  0.001 sec ( 13.611%)
 iterations                     ...        0 min,  0.002 sec ( 45.687%)
 molecular gradient             ...        0 min,  0.002 sec ( 34.167%)
 printout                       ...        0 min,  0.000 sec (  1.913%)

         :::::::::::::::::::::::::::::::::::::::::::::::::::::
         ::                     SUMMARY                     ::
         :::::::::::::::::::::::::::::::::::::::::::::::::::::
         :: total energy             -13.656554836255 Eh    ::
         :: gradient norm              0.058592778464 Eh/a0 ::
         :: HOMO-LUMO gap             14.121269203278 eV    ::
         ::.................................................::
         :: HOMO orbital eigv.       -11.375007094143 eV    ::
         :: LUMO orbital eigv.         2.746262109136 eV    ::
         ::.................................................::
         :: SCC energy               -13.850660745554 Eh    ::
         :: -> isotropic ES            0.002848586409 Eh    ::
         :: -> anisotropic ES          0.005462336015 Eh    ::
         :: -> anisotropic XC          0.010635674324 Eh    ::
         :: -> dispersion             -0.006135513514 Eh    ::
         :: repulsion energy           0.194101429909 Eh    ::
         :: add. restraining           0.000000000000 Eh    ::
         :: total charge              -0.000000000000 e     ::
         ::.................................................::
         :: atomisation energy         3.230209338637 Eh    ::
         :::::::::::::::::::::::::::::::::::::::::::::::::::::

      ----------------------------------------------------------- 
     |                   =====================                   |
     |                        A N C O P T                        |
     |                   =====================                   |
     |               Approximate Normal Coordinate               |
     |                Rational Function Optimizer                |
      ----------------------------------------------------------- 

          ...................................................
          :                      SETUP                      :
          :.................................................:
          :   optimization level            normal          :
          :   max. optcycles                   200          :
          :   ANC micro-cycles                  20          :
          :   degrees of freedom                36          :
          :.................................................:
          :   RF solver                   davidson          :
          :   write xtbopt.log                true          :
          :   linear?                        false          :
          :   energy convergence         0.5000000E-05 Eh   :
          :   grad. convergence          0.1000000E-02 Eh/α :
          :   maxmium RF displ.          1.0000000          :
          :   Hlow (freq-cutoff)         0.1000000E-01      :
          :   Hmax (freq-cutoff)         5.0000000          :
          :   S6 in model hess.         20.0000000          :
          ...................................................

generating ANC from model Hessian ...
Using Lindh-Hessian (1995)
 Shifting diagonal of input Hessian by    5.5499548780003896E-003
 Lowest  eigenvalues of input Hessian
    0.000000    0.000000    0.000000    0.000000    0.000000    0.000000
    0.010000    0.012848    0.014049    0.017181    0.023328    0.044509
    0.045992    0.053219    0.056223    0.057450    0.059902    0.066936
 Highest eigenvalues
    1.073416    1.101615    1.155847    1.190754    1.250161    1.260614


........................................................................
.............................. CYCLE    1 ..............................
........................................................................

 iter      E             dE          RMSdq      gap      omega  full diag
   1    -13.8506607 -0.138507E+02  0.742E-05   14.12       0.0  T
   2    -13.8506607 -0.254197E-11  0.421E-05   14.12     634.9  T
   3    -13.8506607 -0.543565E-12  0.733E-06   14.12    3646.8  T
     SCC iter.                  ...        0 min,  0.001 sec
     gradient                   ...        0 min,  0.002 sec
 * total energy  :   -13.6565548 Eh     change       -0.6515144E-10 Eh
   gradient norm :     0.0585919 Eh/α   predicted     0.0000000E+00 (-100.00%)
   displ. norm   :     0.4035855 α      lambda       -0.1373443E-01
   maximum displ.:     0.2740639 α      in ANC's #5, #8, #10, ...

........................................................................
.............................. CYCLE    2 ..............................
........................................................................

 iter      E             dE          RMSdq      gap      omega  full diag
   1    -13.8725576 -0.138726E+02  0.523E-01   13.87       0.0  T
   2    -13.8726002 -0.426761E-04  0.310E-01   13.87       1.0  T
   3    -13.8726050 -0.471787E-05  0.211E-02   13.86       1.3  T
   4    -13.8726060 -0.102266E-05  0.994E-03   13.86       2.7  T
   5    -13.8726060 -0.412164E-07  0.434E-03   13.86       6.2  T
   6    -13.8726060 -0.124077E-07  0.426E-04   13.86      62.7  T
   7    -13.8726060 -0.234103E-09  0.161E-04   13.86     165.7  T
     SCC iter.                  ...        0 min,  0.001 sec
     gradient                   ...        0 min,  0.002 sec
 * total energy  :   -13.6640803 Eh     change       -0.7525513E-02 Eh
   gradient norm :     0.0143827 Eh/α   predicted    -0.7985748E-02 (   6.12%)
   displ. norm   :     0.1382984 α      lambda       -0.7228474E-03
   maximum displ.:     0.0836857 α      in ANC's #5, #2, #4, ...

........................................................................
.............................. CYCLE    3 ..............................
........................................................................

 iter      E             dE          RMSdq      gap      omega  full diag
   1    -13.8756663 -0.138757E+02  0.747E-02   13.81       0.0  T
   2    -13.8756688 -0.248121E-05  0.444E-02   13.81       1.0  T
   3    -13.8756691 -0.259219E-06  0.602E-03   13.81       4.4  T
   4    -13.8756691 -0.240284E-07  0.214E-03   13.81      12.5  T
   5    -13.8756691 -0.265872E-08  0.799E-04   13.81      33.5  T
   6    -13.8756691 -0.751340E-09  0.146E-04   13.81     183.5  T
     SCC iter.                  ...        0 min,  0.001 sec
     gradient                   ...        0 min,  0.002 sec
 * total energy  :   -13.6645432 Eh     change       -0.4628745E-03 Eh
   gradient norm :     0.0041101 Eh/α   predicted    -0.3683355E-03 ( -20.42%)
   displ. norm   :     0.1610604 α      lambda       -0.2733502E-03
   maximum displ.:     0.1202413 α      in ANC's #2, #4, #5, ...

........................................................................
.............................. CYCLE    4 ..............................
........................................................................

 iter      E             dE          RMSdq      gap      omega  full diag
   1    -13.8753064 -0.138753E+02  0.481E-02   13.74       0.0  T
   2    -13.8753067 -0.243222E-06  0.289E-02   13.74       1.0  T
   3    -13.8753067 -0.294855E-07  0.206E-03   13.74      13.0  T
   4    -13.8753067 -0.176295E-07  0.867E-04   13.74      30.8  T
   5    -13.8753067 -0.417456E-09  0.143E-04   13.74     187.6  T
     SCC iter.                  ...        0 min,  0.001 sec
     gradient                   ...        0 min,  0.002 sec
 * total energy  :   -13.6647484 Eh     change       -0.2052154E-03 Eh
   gradient norm :     0.0034453 Eh/α   predicted    -0.1402170E-03 ( -31.67%)
   displ. norm   :     0.2090445 α      lambda       -0.2269305E-03
   maximum displ.:     0.1655786 α      in ANC's #2, #4, #1, ...

........................................................................
.............................. CYCLE    5 ..............................
........................................................................

 iter      E             dE          RMSdq      gap      omega  full diag
   1    -13.8741256 -0.138741E+02  0.611E-02   13.72       0.0  T
   2    -13.8741260 -0.422920E-06  0.365E-02   13.72       1.0  T
   3    -13.8741260 -0.374996E-07  0.250E-03   13.72      10.7  T
   4    -13.8741261 -0.178840E-07  0.908E-04   13.72      29.4  T
   5    -13.8741261 -0.153189E-09  0.375E-04   13.72      71.2  T
     SCC iter.                  ...        0 min,  0.001 sec
     gradient                   ...        0 min,  0.002 sec
 * total energy  :   -13.6649055 Eh     change       -0.1570443E-03 Eh
   gradient norm :     0.0054599 Eh/α   predicted    -0.1184242E-03 ( -24.59%)
   displ. norm   :     0.1340925 α      lambda       -0.1246350E-03
   maximum displ.:     0.1084626 α      in ANC's #2, #4, #1, ...

........................................................................
.............................. CYCLE    6 ..............................
........................................................................

 iter      E             dE          RMSdq      gap      omega  full diag
   1    -13.8743720 -0.138744E+02  0.382E-02   13.75       0.0  T
   2    -13.8743720 -0.497833E-07  0.230E-02   13.75       1.2  T
   3    -13.8743720 -0.142958E-07  0.928E-04   13.75      28.8  T
   4    -13.8743720 -0.279719E-08  0.468E-04   13.75      57.1  T
     SCC iter.                  ...        0 min,  0.001 sec
     gradient                   ...        0 min,  0.002 sec
 * total energy  :   -13.6650009 Eh     change       -0.9540775E-04 Eh
   gradient norm :     0.0047106 Eh/α   predicted    -0.6343713E-04 ( -33.51%)
   displ. norm   :     0.1484899 α      lambda       -0.1297345E-03
   maximum displ.:     0.1201704 α      in ANC's #2, #4, #1, ...

........................................................................
.............................. CYCLE    7 ..............................
........................................................................

 iter      E             dE          RMSdq      gap      omega  full diag
   1    -13.8753847 -0.138754E+02  0.432E-02   13.79       0.0  T
   2    -13.8753849 -0.162771E-06  0.259E-02   13.79       1.0  T
   3    -13.8753849 -0.219703E-07  0.161E-03   13.79      16.6  T
   4    -13.8753849 -0.797943E-08  0.658E-04   13.79      40.6  T
   5    -13.8753849 -0.207246E-09  0.169E-04   13.79     158.5  T
     SCC iter.                  ...        0 min,  0.001 sec
     gradient                   ...        0 min,  0.002 sec
 * total energy  :   -13.6650841 Eh     change       -0.8320557E-04 Eh
   gradient norm :     0.0022955 Eh/α   predicted    -0.6629648E-04 ( -20.32%)
   displ. norm   :     0.0779107 α      lambda       -0.2987268E-04
   maximum displ.:     0.0589962 α      in ANC's #2, #4, #1, ...

........................................................................
.............................. CYCLE    8 ..............................
........................................................................

 iter      E             dE          RMSdq      gap      omega  full diag
   1    -13.8757509 -0.138758E+02  0.225E-02   13.81       0.0  T
   2    -13.8757509 -0.254155E-07  0.135E-02   13.81       2.0  T
   3    -13.8757509 -0.454161E-08  0.626E-04   13.81      42.7  T
   4    -13.8757509 -0.134555E-08  0.284E-04   13.81      94.0  T
     SCC iter.                  ...        0 min,  0.001 sec
     gradient                   ...        0 min,  0.002 sec
 * total energy  :   -13.6651046 Eh     change       -0.2052158E-04 Eh
   gradient norm :     0.0013333 Eh/α   predicted    -0.1502629E-04 ( -26.78%)
   displ. norm   :     0.0804703 α      lambda       -0.1270030E-04
   maximum displ.:     0.0520875 α      in ANC's #2, #1, #3, ...

........................................................................
.............................. CYCLE    9 ..............................
........................................................................

 iter      E             dE          RMSdq      gap      omega  full diag
   1    -13.8761501 -0.138762E+02  0.236E-02   13.81       0.0  T
   2    -13.8761501 -0.499483E-07  0.141E-02   13.81       1.9  T
   3    -13.8761502 -0.573918E-08  0.814E-04   13.81      32.8  T
   4    -13.8761502 -0.154156E-08  0.334E-04   13.81      80.0  T
     SCC iter.                  ...        0 min,  0.001 sec
     gradient                   ...        0 min,  0.002 sec
 * total energy  :   -13.6651147 Eh     change       -0.1009590E-04 Eh
   gradient norm :     0.0010126 Eh/α   predicted    -0.6368552E-05 ( -36.92%)
   displ. norm   :     0.0361123 α      lambda       -0.3694129E-05
   maximum displ.:     0.0286248 α      in ANC's #1, #2, #4, ...

........................................................................
.............................. CYCLE   10 ..............................
........................................................................

 iter      E             dE          RMSdq      gap      omega  full diag
   1    -13.8757835 -0.138758E+02  0.113E-02   13.80       0.0  T
   2    -13.8757835 -0.305217E-07  0.666E-03   13.80       4.0  T
   3    -13.8757835 -0.178675E-08  0.767E-04   13.80      34.9  T
   4    -13.8757835 -0.103440E-08  0.222E-04   13.80     120.6  T
     SCC iter.                  ...        0 min,  0.001 sec
     gradient                   ...        0 min,  0.002 sec
 * total energy  :   -13.6651178 Eh     change       -0.3058145E-05 Eh
   gradient norm :     0.0008466 Eh/α   predicted    -0.1848832E-05 ( -39.54%)
   displ. norm   :     0.0374479 α      lambda       -0.5068199E-05
   maximum displ.:     0.0239084 α      in ANC's #1, #4, #2, ...

   *** GEOMETRY OPTIMIZATION CONVERGED AFTER 10 ITERATIONS ***

------------------------------------------------------------------------
 total energy gain   :        -0.0085629 Eh       -5.3733 kcal/mol
 total RMSD          :         0.2894638 a0        0.1532 Å
 total power (kW/mol):        -2.2481985 (step) -606.0640 (real)
------------------------------------------------------------------------

 ANCopt (total)                0 d,  0 h,  0 min,  0.037 sec
 optimizer setup                ...        0 min,  0.000 sec (  0.205%)
 model hessian                  ...        0 min,  0.003 sec (  6.806%)
 ANC generation                 ...        0 min,  0.000 sec (  0.658%)
 coordinate transformation      ...        0 min,  0.000 sec (  0.082%)
 single point calculation       ...        0 min,  0.032 sec ( 86.711%)
 optimization log               ...        0 min,  0.001 sec (  1.703%)
 hessian update                 ...        0 min,  0.000 sec (  0.193%)
 rational function              ...        0 min,  0.001 sec (  2.408%)

================
 final structure:
================
14
 xtb: 6.6.1 (8d0f1dd)
C           -1.02889337694838        1.61573417964817        0.94272070900122
C           -1.09893292364676        0.09715260781457        0.84053620268990
C            0.28972850779168       -0.53346883573613        0.76756548375820
C            0.22292051633829       -2.05431614740671        0.70599483107513
H           -2.02726907195540        2.04478850406983        0.98330331679613
H           -0.49136300342949        1.91248699241394        1.84150030167198
H           -0.51022380813144        2.03313771252953        0.08188783116647
H           -1.62888075665758       -0.30047077843427        1.70954779965719
H           -1.66838417151835       -0.18168525049503       -0.04919670723259
H            0.86728388929300       -0.23120059520847        1.64447791823611
H            0.81005211816011       -0.15667242186520       -0.11613608272938
H            1.22266181354785       -2.48089314387201        0.66260655873346
H           -0.28111753145755       -2.44954618210451        1.58635023569354
H           -0.32782901122833       -2.37710411138294       -0.17565192460223

 Bond Distances (Angstroems)
 ---------------------------
C1-C2=1.5236         C1-H5=1.0874         C1-H6=1.0885         C1-H7=1.0882         C2-C1=1.5236         C2-C3=1.5269         
C2-H8=1.0928         C2-H9=1.0925         C3-C2=1.5269         C3-C4=1.5236         C3-H10=1.0927        C3-H11=1.0925        
C4-C3=1.5236         C4-H12=1.0878        C4-H13=1.0887        C4-H14=1.0885        H5-C1=1.0874         H6-C1=1.0885         
H7-C1=1.0882         H8-C2=1.0928         H9-C2=1.0925         H10-C3=1.0927        H11-C3=1.0925        H12-C4=1.0878        
H13-C4=1.0887        H14-C4=1.0885        
 C  H  Rav=1.0900 sigma=0.0022  Rmin=1.0874  Rmax=1.0928    10
 C  C  Rav=1.5247 sigma=0.0016  Rmin=1.5236  Rmax=1.5269     3

 selected bond angles (degree)
 --------------------
H5-C1-C2=110.70                H6-C1-C2=110.48                H6-C1-H5=108.36                H7-C1-C2=110.56                
H7-C1-H5=108.41                H7-C1-H6=108.25                C3-C2-C1=111.90                H8-C2-C1=109.37                
H8-C2-C3=109.19                H9-C2-C1=109.45                H9-C2-C3=109.25                H9-C2-H8=107.58                
C4-C3-C2=111.98                H10-C3-C2=109.15               H10-C3-C4=109.38               H11-C3-C2=109.23               
H11-C3-C4=109.42               H11-C3-H10=107.58              H12-C4-C3=110.66               H13-C4-C3=110.49               
H13-C4-H12=108.38              H14-C4-C3=110.54               H14-C4-H12=108.45              H14-C4-H13=108.24              

 selected dihedral angles (degree)
 ---------------------------------
C3-C2-C1-H5=179.43            C3-C2-C1-H6=299.47            C3-C2-C1-H7= 59.28            H8-C2-C1-H5=300.55            
H8-C2-C1-H6= 60.59            H8-C2-C1-H7=180.40            H9-C2-C1-H5= 58.17            H9-C2-C1-H6=178.21            
H9-C2-C1-H7=298.02            C4-C3-C2-C1=178.35            C4-C3-C2-H8= 57.12            C4-C3-C2-H9=299.72            
H10-C3-C2-C1= 57.09           H10-C3-C2-H8=295.86           H10-C3-C2-H9=178.45           H11-C3-C2-C1=299.72           
H11-C3-C2-H8=178.49           H11-C3-C2-H9= 61.08           H12-C4-C3-C2=180.45           H12-C4-C3-H10=301.58          
H12-C4-C3-H11= 59.19          H13-C4-C3-C2=300.49           H13-C4-C3-H10= 61.63          H13-C4-C3-H11=179.23          
H14-C4-C3-C2= 60.29           H14-C4-C3-H10=181.42          H14-C4-C3-H11=299.03          
           -------------------------------------------------
          |                Final Singlepoint                |
           -------------------------------------------------

          ...................................................
          :                      SETUP                      :
          :.................................................:
          :  # basis functions                  26          :
          :  # atomic orbitals                  26          :
          :  # shells                           18          :
          :  # electrons                        26          :
          :  max. iterations                   250          :
          :  Hamiltonian                  GFN2-xTB          :
          :  restarted?                      false          :
          :  GBSA solvation                  false          :
          :  PC potential                    false          :
          :  electronic temp.          300.0000000     K    :
          :  accuracy                    1.0000000          :
          :  -> integral cutoff          0.2500000E+02      :
          :  -> integral neglect         0.1000000E-07      :
          :  -> SCF convergence          0.1000000E-05 Eh   :
          :  -> wf. convergence          0.1000000E-03 e    :
          :  Broyden damping             0.4000000          :
          ...................................................

 iter      E             dE          RMSdq      gap      omega  full diag
   1    -13.8757835 -0.138758E+02  0.936E-05   13.80       0.0  T
   2    -13.8757835 -0.455103E-11  0.530E-05   13.80     504.3  T
   3    -13.8757835  0.497380E-13  0.127E-05   13.80    2104.1  T

   *** convergence criteria satisfied after 3 iterations ***

         #    Occupation            Energy/Eh            Energy/eV
      -------------------------------------------------------------
         1        2.0000           -0.6179649             -16.8157
       ...           ...                  ...                  ...
         7        2.0000           -0.4878990             -13.2764
         8        2.0000           -0.4789482             -13.0328
         9        2.0000           -0.4546512             -12.3717
        10        2.0000           -0.4395443             -11.9606
        11        2.0000           -0.4366792             -11.8826
        12        2.0000           -0.4258212             -11.5872
        13        2.0000           -0.4195419             -11.4163 (HOMO)
        14                          0.0876723               2.3857 (LUMO)
        15                          0.1266105               3.4452
        16                          0.1275003               3.4695
        17                          0.1526284               4.1532
        18                          0.1627141               4.4277
       ...                                ...                  ...
        26                          0.3111402               8.4666
      -------------------------------------------------------------
                  HL-Gap            0.5072142 Eh           13.8020 eV
             Fermi-level           -0.1659348 Eh           -4.5153 eV

 SCC (total)                   0 d,  0 h,  0 min,  0.003 sec
 SCC setup                      ...        0 min,  0.000 sec (  6.983%)
 Dispersion                     ...        0 min,  0.000 sec (  2.175%)
 classical contributions        ...        0 min,  0.000 sec (  0.621%)
 integral evaluation            ...        0 min,  0.001 sec ( 18.612%)
 iterations                     ...        0 min,  0.001 sec ( 19.049%)
 molecular gradient             ...        0 min,  0.002 sec ( 49.120%)
 printout                       ...        0 min,  0.000 sec (  3.137%)

         :::::::::::::::::::::::::::::::::::::::::::::::::::::
         ::                     SUMMARY                     ::
         :::::::::::::::::::::::::::::::::::::::::::::::::::::
         :: total energy             -13.665117772109 Eh    ::
         :: gradient norm              0.000847063466 Eh/a0 ::
         :: HOMO-LUMO gap             13.802000648621 eV    ::
         ::.................................................::
         :: HOMO orbital eigv.       -11.416316935166 eV    ::
         :: LUMO orbital eigv.         2.385683713454 eV    ::
         ::.................................................::
         :: SCC energy               -13.875783516437 Eh    ::
         :: -> isotropic ES            0.002994844117 Eh    ::
         :: -> anisotropic ES          0.004916455485 Eh    ::
         :: -> anisotropic XC          0.009068747811 Eh    ::
         :: -> dispersion             -0.006049230467 Eh    ::
         :: repulsion energy           0.210661867267 Eh    ::
         :: add. restraining           0.000000000000 Eh    ::
         :: total charge               0.000000000000 e     ::
         ::.................................................::
         :: atomisation energy         3.238772274492 Eh    ::
         :::::::::::::::::::::::::::::::::::::::::::::::::::::

           -------------------------------------------------
          |                Property Printout                |
           -------------------------------------------------

    * Orbital Energies and Occupations

         #    Occupation            Energy/Eh            Energy/eV
      -------------------------------------------------------------
         1        2.0000           -0.6179649             -16.8157
         2        2.0000           -0.5989589             -16.2985
         3        2.0000           -0.5678869             -15.4530
         4        2.0000           -0.5523941             -15.0314
         5        2.0000           -0.5138241             -13.9819
         6        2.0000           -0.4918552             -13.3841
         7        2.0000           -0.4878990             -13.2764
         8        2.0000           -0.4789482             -13.0328
         9        2.0000           -0.4546512             -12.3717
        10        2.0000           -0.4395443             -11.9606
        11        2.0000           -0.4366792             -11.8826
        12        2.0000           -0.4258212             -11.5872
        13        2.0000           -0.4195419             -11.4163 (HOMO)
        14                          0.0876723               2.3857 (LUMO)
        15                          0.1266105               3.4452
        16                          0.1275003               3.4695
        17                          0.1526284               4.1532
        18                          0.1627141               4.4277
        19                          0.1832512               4.9865
        20                          0.1933775               5.2621
        21                          0.1965806               5.3492
        22                          0.2243121               6.1038
        23                          0.2547629               6.9325
        24                          0.2642148               7.1897
       ...                                ...                  ...
        26                          0.3111402               8.4666
      -------------------------------------------------------------
                  HL-Gap            0.5072142 Eh           13.8020 eV
             Fermi-level           -0.1659348 Eh           -4.5153 eV

     #   Z          covCN         q      C6AA      α(0)
     1   6 C        3.752    -0.102    22.509     6.766
     2   6 C        3.801    -0.053    21.534     6.607
     3   6 C        3.801    -0.053    21.534     6.607
     4   6 C        3.752    -0.102    22.508     6.766
     5   1 H        0.925     0.032     2.553     2.499
     6   1 H        0.925     0.032     2.552     2.498
     7   1 H        0.925     0.033     2.550     2.497
     8   1 H        0.924     0.029     2.599     2.521
     9   1 H        0.924     0.029     2.602     2.523
    10   1 H        0.924     0.029     2.598     2.521
    11   1 H        0.924     0.029     2.602     2.523
    12   1 H        0.925     0.032     2.553     2.499
    13   1 H        0.925     0.032     2.551     2.498
    14   1 H        0.925     0.033     2.551     2.498

 Mol. C6AA /au·bohr⁶  :       1207.534337
 Mol. C8AA /au·bohr⁸  :      24480.878885
 Mol. α(0) /au        :         51.820341


Wiberg/Mayer (AO) data.
largest (>0.10) Wiberg bond orders for each atom

 ---------------------------------------------------------------------------
     #   Z sym  total        # sym  WBO       # sym  WBO       # sym  WBO
 ---------------------------------------------------------------------------
     1   6 C    3.997 --     2 C    1.019     6 H    0.988     7 H    0.988
                             5 H    0.988
     2   6 C    3.998 --     1 C    1.019     3 C    1.009     9 H    0.979
                             8 H    0.979
     3   6 C    3.998 --     4 C    1.019     2 C    1.009    11 H    0.979
                            10 H    0.979
     4   6 C    3.997 --     3 C    1.019    14 H    0.988    13 H    0.988
                            12 H    0.988
     5   1 H    0.999 --     1 C    0.988
     6   1 H    0.999 --     1 C    0.988
     7   1 H    0.999 --     1 C    0.988
     8   1 H    0.999 --     2 C    0.979
     9   1 H    0.999 --     2 C    0.979
    10   1 H    0.999 --     3 C    0.979
    11   1 H    0.999 --     3 C    0.979
    12   1 H    0.999 --     4 C    0.988
    13   1 H    0.999 --     4 C    0.988
    14   1 H    0.999 --     4 C    0.988
 ---------------------------------------------------------------------------

Topologies differ in total number of bonds
Writing topology from bond orders to xtbtopo.mol

molecular dipole:
                 x           y           z       tot (Debye)
 q only:        0.000       0.000       0.001
   full:        0.000       0.000       0.001       0.002
molecular quadrupole (traceless):
                xx          xy          yy          xz          yz          zz
 q only:       -0.021      -0.027       0.192      -0.006       0.020      -0.171
  q+dip:        0.138       0.248      -1.085       0.036      -0.120       0.946
   full:        0.058       0.101      -0.474       0.015      -0.052       0.416

           -------------------------------------------------
          |                Geometry Summary                 |
           -------------------------------------------------

      molecular mass/u    :       58.1223511
   center of mass at/Å    :       -0.4037445      -0.2187231       0.8146665
  moments of inertia/u·Å² :        0.2163867E+02   0.1369866E+03   0.1460728E+03
rotational constants/cm⁻¹ :        0.7790513E+00   0.1230605E+00   0.1154057E+00

 * 13 selected distances

     #   Z          #   Z                                           value/Å
     1   6 C        2   6 C                                       1.5236265
     2   6 C        3   6 C                                       1.5268887 (max)
     3   6 C        4   6 C                                       1.5235587
     1   6 C        5   1 H                                       1.0874230 (min)
     1   6 C        6   1 H                                       1.0884880
     1   6 C        7   1 H                                       1.0882451
     2   6 C        8   1 H                                       1.0927628
     2   6 C        9   1 H                                       1.0925430
     3   6 C       10   1 H                                       1.0926628
     3   6 C       11   1 H                                       1.0925387
     4   6 C       12   1 H                                       1.0878113
     4   6 C       13   1 H                                       1.0887089
     4   6 C       14   1 H                                       1.0884936

 * 2 distinct bonds (by element types)

   Z      Z             #   av. dist./Å        max./Å        min./Å
   1 H    6 C          10     1.0899677     1.0927628     1.0874230
   6 C    6 C           3     1.5246913     1.5268887     1.5235587


optimized geometry written to: xtbopt.xyz


           -------------------------------------------------
          | TOTAL ENERGY              -13.665117772109 Eh   |
          | GRADIENT NORM               0.000847063466 Eh/α |
          | HOMO-LUMO GAP              13.802000648621 eV   |
           -------------------------------------------------

------------------------------------------------------------------------
 unit  open   action     filename
   10 false : read       mol.xyz
   10 false : read       mol.xyz
   10 false : read       mol.xyz
   10 false : written    xtbopt.log
   11 false : created    .xtboptok
   10 false : written    charges
   10 false : written    wbo
   10 false : written    xtbtopo.mol
   10 false : written    xtbopt.xyz

------------------------------------------------------------------------
 * finished run on 2023/08/31 at 18:00:48.802     
------------------------------------------------------------------------
 total:
 * wall-time:     0 d,  0 h,  0 min,  0.054 sec
 *  cpu-time:     0 d,  0 h,  0 min,  0.054 sec
 * ratio c/w:     0.996 speedup
 SCF:
 * wall-time:     0 d,  0 h,  0 min,  0.005 sec
 *  cpu-time:     0 d,  0 h,  0 min,  0.005 sec
 * ratio c/w:     0.995 speedup
 ANC optimizer:
 * wall-time:     0 d,  0 h,  0 min,  0.042 sec
 *  cpu-time:     0 d,  0 h,  0 min,  0.041 sec
 * ratio c/w:     0.996 speedup

normal termination of xtb
